 Gaussian 09, Revision C.01,
 Gaussian 09:  EM64L-G09RevC.01 23-Sep-2011

 ---------------------------------------
 # opt freq hf/6-31g** geom=connectivity
 ---------------------------------------

 99/9=1/99;
 -------------------
 Title Card Required
 -------------------
 Charge =  0 Multiplicity = 1

 SCF Done:  E(RHF) =  -76.0225479057     A.U. after   10 cycles
 SCF Done:  E(RHF) =  -76.0235724587     A.U. after    9 cycles
 SCF Done:  E(RHF) =  -76.0236149302     A.U. after    8 cycles
 Optimization completed.
    -- Stationary point found.
 Normal termination of Gaussian 09 at Mon Mar  1 15:26:07 2021.

 -------------------------------------------------------------------
 #N Geom=AllCheck Guess=TCheck SCRF=Check GenChk RHF/6-31G(d,p) Freq
 -------------------------------------------------------------------

 Structure from the checkpoint file:  h2.chk
 -------------------
 Title Card Required
 -------------------
 Charge =  0 Multiplicity = 1

                         Standard orientation:
 ---------------------------------------------------------------------
 Center     Atomic      Atomic             Coordinates (Angstroms)
 Number     Number       Type             X           Y           Z
 ---------------------------------------------------------------------
      1          8           0        0.000000    0.000000    0.113629
      2          1           0        0.000000    0.752873   -0.454516
      3          1           0        0.000000   -0.752873   -0.454516
 ---------------------------------------------------------------------

 SCF Done:  E(RHF) =  -76.0236149302     A.U. after    1 cycles

 The electronic state is 1-A1.
 Alpha  occ. eigenvalues --  -20.55732  -1.34644  -0.71373  -0.56836  -0.49762
 Alpha virt. eigenvalues --    0.21530   0.30840   1.01664   1.09305   1.13459
 Alpha virt. eigenvalues --    1.16898   1.29551   1.41181   1.80262   1.82914
 Alpha virt. eigenvalues --    1.93130   2.58288   2.58871   2.84126   2.99772

 Mulliken atomic charges:
              1
     1  O   -0.670654
     2  H    0.335327
     3  H    0.335327
 Sum of Mulliken atomic charges =   0.00000

 Dipole moment (field-independent basis, Debye):
    X=              0.0000    Y=              0.0000    Z=             -2.1485  Tot=              2.1485
 Quadrupole moment (field-independent basis, Debye-Ang):
   XX=             -7.1343   YY=             -4.0858   ZZ=             -5.9795
   XY=              0.0000   XZ=              0.0000   YZ=              0.0000

  Exact polarizability:   2.931   0.000   6.769   0.000   0.000   4.906
 Approx polarizability:   2.521   0.000   5.492   0.000   0.000   4.151

                     1                      2                      3
                    A1                     A1                     B2
 Frequencies --  1770.4981              4145.8616              4262.4722
 Red. masses --     1.0831                 1.0448                 1.0833
 Frc consts  --     2.0003                10.5808                11.5960
 IR Inten    --   104.4607                16.2740                57.6660
 Raman Activ --     5.5070                74.6060                36.5168

 - Thermochemistry -
 -------------------
 Temperature   298.150 Kelvin.  Pressure   1.00000 Atm.
 Atom     1 has atomic number  8 and mass  15.99491

 Molecular mass:    18.01056 amu.
 Principal axes and moments of inertia in atomic units:
                           1         2         3
     Eigenvalues --     2.06341   4.07996   6.14338
           X            0.00000   0.00000   1.00000
           Y            1.00000   0.00000   0.00000
           Z            0.00000   1.00000   0.00000
 This molecule is an asymmetric top.
 Rotational symmetry number  2.
 Rotational temperatures (Kelvin)     41.97597    21.22907    14.09873
 Rotational constants (GHZ):         874.63832   442.34257   293.77022
 Zero-point vibrational energy      60882.9 (Joules/Mol)
                                   14.55137 (Kcal/Mol)
 Vibrational temperatures:   2547.35  5964.96  6132.74
          (Kelvin)

 Zero-point correction=                           0.023189 (Hartree/Particle)
 Thermal correction to Energy=                    0.026023
 Thermal correction to Enthalpy=                  0.026967
 Thermal correction to Gibbs Free Energy=         0.005606
 Sum of electronic and zero-point Energies=            -76.000426
 Sum of electronic and thermal Energies=               -75.997592
 Sum of electronic and thermal Enthalpies=             -75.996648
 Sum of electronic and thermal Free Energies=          -76.018009

                     E (Thermal)             CV                S
                      KCal/Mol        Cal/Mol-Kelvin    Cal/Mol-Kelvin
 Total                   16.330              5.990             44.958
 Electronic               0.000              0.000              0.000
 Translational            0.889              2.981             34.608
 Rotational               0.889              2.981             10.346
 Vibrational             14.552              0.028              0.004

 Optimization completed.
    -- Stationary point found.
 Normal termination of Gaussian 09 at Mon Mar  1 15:26:08 2021.
