 Gaussian 09, Revision C.01,
 Gaussian 09:  EM64L-G09RevC.01 23-Sep-2011

 ---------------------------------------
 # opt freq hf/6-31g** geom=connectivity
 ---------------------------------------

 99/9=1/99;
 -------------------
 Title Card Required
 -------------------
 Charge =  1 Multiplicity = 1

 SCF Done:  E(RHF) =  -152.175934248     A.U. after   13 cycles
 SCF Done:  E(RHF) =  -152.218329100     A.U. after   11 cycles
 SCF Done:  E(RHF) =  -152.279267885     A.U. after   12 cycles
 SCF Done:  E(RHF) =  -152.305382034     A.U. after   12 cycles
 SCF Done:  E(RHF) =  -152.346948964     A.U. after   12 cycles
 SCF Done:  E(RHF) =  -152.353545219     A.U. after   12 cycles
 SCF Done:  E(RHF) =  -152.361034936     A.U. after   12 cycles
 SCF Done:  E(RHF) =  -152.376171608     A.U. after   11 cycles
 SCF Done:  E(RHF) =  -152.380772162     A.U. after   10 cycles
 SCF Done:  E(RHF) =  -152.384160465     A.U. after   10 cycles
 SCF Done:  E(RHF) =  -152.386802287     A.U. after   10 cycles
 SCF Done:  E(RHF) =  -152.387839395     A.U. after   10 cycles
 SCF Done:  E(RHF) =  -152.387908639     A.U. after   12 cycles
 SCF Done:  E(RHF) =  -152.387920905     A.U. after   11 cycles
 SCF Done:  E(RHF) =  -152.387926262     A.U. after    8 cycles
 SCF Done:  E(RHF) =  -152.387931812     A.U. after   10 cycles
 SCF Done:  E(RHF) =  -152.387933782     A.U. after   10 cycles
 SCF Done:  E(RHF) =  -152.387936651     A.U. after   10 cycles
 SCF Done:  E(RHF) =  -152.387937623     A.U. after    8 cycles
 Optimization completed.
    -- Stationary point found.
 Normal termination of Gaussian 09 at Mon Mar  1 12:50:58 2021.

 -------------------------------------------------------------------
 #N Geom=AllCheck Guess=TCheck SCRF=Check GenChk RHF/6-31G(d,p) Freq
 -------------------------------------------------------------------

 Structure from the checkpoint file:  h20h30+.chk
 -------------------
 Title Card Required
 -------------------
 Charge =  1 Multiplicity = 1

                         Standard orientation:
 ---------------------------------------------------------------------
 Center     Atomic      Atomic             Coordinates (Angstroms)
 Number     Number       Type             X           Y           Z
 ---------------------------------------------------------------------
      1          8           0        1.194781    0.006019    0.008870
      2          1           0        1.748898    0.739918    0.240277
      3          1           0        1.723468   -0.727542   -0.278422
      4          8           0       -1.198203   -0.052555   -0.021034
      5          1           0       -0.118391    0.002233   -0.011667
      6          1           0       -1.652132   -0.101654    0.814944
      7          1           0       -1.674470    0.459333   -0.667819
 ---------------------------------------------------------------------

 SCF Done:  E(RHF) =  -152.387937623     A.U. after    1 cycles

 The electronic state is 1-A.
 Alpha  occ. eigenvalues --  -20.89873 -20.83017  -1.70064  -1.61821  -1.06453
 Alpha  occ. eigenvalues --   -1.05241  -0.98777  -0.85917  -0.82937  -0.77298
 Alpha virt. eigenvalues --   -0.03379   0.01884   0.06638   0.10354   0.26093
 Alpha virt. eigenvalues --    0.63709   0.69650   0.71728   0.78273   0.85126
 Alpha virt. eigenvalues --    0.87380   0.89434   0.99710   1.01525   1.04523

 Mulliken atomic charges:
              1
     1  O   -0.704335
     2  H    0.415738
     3  H    0.417558
     4  O   -0.585924
     5  H    0.577155
     6  H    0.439973
     7  H    0.439835
 Sum of Mulliken atomic charges =   1.00000

 Dipole moment (field-independent basis, Debye):
    X=             -0.8548    Y=              0.9943    Z=              0.2600  Tot=              1.3368
 Quadrupole moment (field-independent basis, Debye-Ang):
   XX=              4.6526   YY=             -9.7111   ZZ=             -9.8148
   XY=             -1.6694   XZ=             -0.8422   YZ=             -0.0511

  Exact polarizability:  13.449  -0.371   8.546  -0.178   0.099   8.161
 Approx polarizability:   9.917  -0.271   7.563  -0.130   0.089   7.225

                     1                      2                      3
                     A                      A                      A
 Frequencies --   141.9504               218.7760               360.1818
 Red. masses --     1.1316                 1.0803                 2.1049
 Frc consts  --     0.0134                 0.0305                 0.1609
 IR Inten    --   151.6286               291.6841               287.0283
 Raman Activ --     2.6916                 2.9860                 0.5619

                     4                      5                      6
                     A                      A                      A
 Frequencies --   470.3399               494.5479               510.6169
 Red. masses --     1.2762                 1.0460                 1.2495
 Frc consts  --     0.1663                 0.1507                 0.1919
 IR Inten    --   387.4479                20.2010                58.2809
 Raman Activ --     1.0618                 1.4228                 0.1843

                     7                      8                      9
                     A                      A                      A
 Frequencies --  1398.7585              1441.9995              1749.0417
 Red. masses --     1.0900                 1.0750                 1.0583
 Frc consts  --     1.2566                 1.3171                 1.9075
 IR Inten    --   945.7901               598.0877               137.3887
 Raman Activ --    10.6819                 0.9573                 0.3544

                    10                     11                     12
                     A                      A                      A
 Frequencies --  1794.2875              1974.9932              4026.0715
 Red. masses --     1.0885                 1.1337                 1.0426
 Frc consts  --     2.0646                 2.6053                 9.9567
 IR Inten    --    32.7666              2344.1620               240.9966
 Raman Activ --     2.9047                 7.8429                35.3841

                    13                     14                     15
                     A                      A                      A
 Frequencies --  4086.9458              4131.4013              4192.7759
 Red. masses --     1.0440                 1.0904                 1.0876
 Frc consts  --    10.2742                10.9654                11.2652
 IR Inten    --   106.7073               437.4335               325.2855
 Raman Activ --    56.5605                18.6993                26.0826

 - Thermochemistry -
 -------------------
 Temperature   298.150 Kelvin.  Pressure   1.00000 Atm.
 Atom     1 has atomic number  8 and mass  15.99491

 Molecular mass:    37.02895 amu.
 Principal axes and moments of inertia in atomic units:
                           1         2         3
     Eigenvalues --     9.30528 209.73557 210.03075
           X            0.99994  -0.01022  -0.00439
           Y            0.00991   0.99779  -0.06571
           Z            0.00505   0.06566   0.99783
 This molecule is an asymmetric top.
 Rotational symmetry number  1.
 Rotational temperatures (Kelvin)      9.30803     0.41297     0.41239
 Rotational constants (GHZ):         193.94810     8.60484     8.59275
 Zero-point vibrational energy     161452.1 (Joules/Mol)
                                   38.58798 (Kcal/Mol)
 Warning -- explicit consideration of   6 degrees of freedom as
           vibrations may cause significant error
 Vibrational temperatures:    204.23   314.77   518.22   676.71   711.54
          (Kelvin)            734.66  2012.50  2074.71  2516.48  2581.58
                             2841.57  5792.61  5880.20  5944.16  6032.46

 Zero-point correction=                           0.061494 (Hartree/Particle)
 Thermal correction to Energy=                    0.066575
 Thermal correction to Enthalpy=                  0.067519
 Thermal correction to Gibbs Free Energy=         0.036469
 Sum of electronic and zero-point Energies=           -152.326444
 Sum of electronic and thermal Energies=              -152.321363
 Sum of electronic and thermal Enthalpies=            -152.320418
 Sum of electronic and thermal Free Energies=         -152.351469

                     E (Thermal)             CV                S
                      KCal/Mol        Cal/Mol-Kelvin    Cal/Mol-Kelvin
 Total                   41.776             15.312             65.351
 Electronic               0.000              0.000              0.000
 Translational            0.889              2.981             36.757
 Rotational               0.889              2.981             20.644
 Vibrational             39.999              9.350              7.951
 Vibration     1          0.615              1.911              2.777
 Vibration     2          0.647              1.812              1.969
 Vibration     3          0.735              1.554              1.121
 Vibration     4          0.827              1.316              0.737
 Vibration     5          0.850              1.262              0.672
 Vibration     6          0.866              1.226              0.632

 Normal termination of Gaussian 09 at Mon Mar  1 12:51:01 2021.
