 Gaussian 09, Revision C.01,
 Gaussian 09:  EM64L-G09RevC.01 23-Sep-2011

 ------------------------
 # opt freq B3LYP/6-31g**
 ------------------------

 99/9=1/99;
 ------
 b3Llyp
 ------
 Charge =  1 Multiplicity = 1

 SCF Done:  E(RB3LYP) =  -152.868762972     A.U. after   18 cycles
 SCF Done:  E(RB3LYP) =  -152.906695160     A.U. after   15 cycles
 SCF Done:  E(RB3LYP) =  -152.973704220     A.U. after   14 cycles
 SCF Done:  E(RB3LYP) =  -153.014269380     A.U. after   13 cycles
 SCF Done:  E(RB3LYP) =  -153.107199989     A.U. after   12 cycles
 SCF Done:  E(RB3LYP) =  -152.100708194     A.U. after   13 cycles
 SCF Done:  E(RB3LYP) =  -153.178707248     A.U. after   12 cycles
 SCF Done:  E(RB3LYP) =  -153.187276055     A.U. after   11 cycles
 SCF Done:  E(RB3LYP) =  -153.185437433     A.U. after   12 cycles
 SCF Done:  E(RB3LYP) =  -153.188672064     A.U. after   11 cycles
 SCF Done:  E(RB3LYP) =  -153.191771875     A.U. after   11 cycles
 SCF Done:  E(RB3LYP) =  -153.191810894     A.U. after    8 cycles
 SCF Done:  E(RB3LYP) =  -153.191824224     A.U. after    8 cycles
 SCF Done:  E(RB3LYP) =  -153.191833208     A.U. after    8 cycles
 SCF Done:  E(RB3LYP) =  -153.191840953     A.U. after    8 cycles
 SCF Done:  E(RB3LYP) =  -153.191844814     A.U. after    7 cycles
 SCF Done:  E(RB3LYP) =  -153.191845906     A.U. after    7 cycles
 SCF Done:  E(RB3LYP) =  -153.191846400     A.U. after    7 cycles
 SCF Done:  E(RB3LYP) =  -153.191846471     A.U. after    6 cycles
 Optimization completed.
    -- Stationary point found.
 Normal termination of Gaussian 09 at Mon Mar  1 16:51:12 2021.

 ----------------------------------------------------------------------
 #N Geom=AllCheck Guess=TCheck SCRF=Check GenChk RB3LYP/6-31G(d,p) Freq
 ----------------------------------------------------------------------

 Structure from the checkpoint file:  h2h3b3l.chk
 ------
 b3Llyp
 ------
 Charge =  1 Multiplicity = 1

                         Standard orientation:
 ---------------------------------------------------------------------
 Center     Atomic      Atomic             Coordinates (Angstroms)
 Number     Number       Type             X           Y           Z
 ---------------------------------------------------------------------
      1          8           0       -1.196965    0.034420    0.055109
      2          1           0       -1.657868    0.475729   -0.677124
      3          1           0       -1.705898   -0.738176    0.348772
      4          8           0        1.196943    0.034400   -0.055070
      5          1           0        1.705550   -0.738392   -0.348838
      6          1           0        1.658412    0.475762    0.676779
      7          1           0       -0.000017   -0.025484    0.000096
 ---------------------------------------------------------------------

 SCF Done:  E(RB3LYP) =  -153.191846471     A.U. after    1 cycles

 The electronic state is 1-A.
 Alpha  occ. eigenvalues --  -19.44737 -19.44737  -1.31970  -1.29201  -0.83623
 Alpha  occ. eigenvalues --   -0.81694  -0.81603  -0.67216  -0.60750  -0.59838
 Alpha virt. eigenvalues --   -0.18271  -0.14425  -0.08017  -0.07697   0.06144
 Alpha virt. eigenvalues --    0.40449   0.45939   0.47325   0.55052   0.55779
 Alpha virt. eigenvalues --    0.60328   0.61609   0.72941   0.73199   0.77624

 Mulliken atomic charges:
              1
     1  O   -0.552331
     2  H    0.404715
     3  H    0.402538
     4  O   -0.552358
     5  H    0.402527
     6  H    0.404728
     7  H    0.490181
 Sum of Mulliken atomic charges =   1.00000

 Dipole moment (field-independent basis, Debye):
    X=              0.0003    Y=             -1.3695    Z=             -0.0006  Tot=              1.3695
 Quadrupole moment (field-independent basis, Debye-Ang):
   XX=              3.6906   YY=             -9.1784   ZZ=            -10.2688
   XY=              0.0010   XZ=              2.9112   YZ=             -0.0001

  Exact polarizability:  15.561   0.001   9.621   0.912   0.000   8.752
 Approx polarizability:  16.726   0.001  11.908   1.051   0.000  10.739

                     1                      2                      3
                     A                      A                      A
 Frequencies --   163.7293               379.6404               422.1522
 Red. masses --     1.0312                 1.1246                 1.1505
 Frc consts  --     0.0163                 0.0955                 0.1208
 IR Inten    --    29.7873               318.1661               262.1904

                     4                      5                      6
                     A                      A                      A
 Frequencies --   482.5196               511.7945               618.3120
 Red. masses --     1.1221                 1.1065                 4.8297
 Frc consts  --     0.1539                 0.1708                 1.0879
 IR Inten    --     9.3802                 8.0326                 0.5028

                     7                      8                      9
                     A                      A                      A
 Frequencies --  1085.8297              1449.4685              1541.8591
 Red. masses --     1.0220                 1.0624                 1.0637
 Frc consts  --     0.7100                 1.3151                 1.4898
 IR Inten    --  2451.3632               347.5880               134.1725

                    10                     11                     12
                     A                      A                      A
 Frequencies --  1691.1410              1769.4203              3750.8661
 Red. masses --     1.0787                 1.0981                 1.0414
 Frc consts  --     1.8177                 2.0257                 8.6322
 IR Inten    --     4.2286              1358.3912               229.4734

                    13                     14                     15
                     A                      A                      A
 Frequencies --  3759.8415              3853.5813              3853.9742
 Red. masses --     1.0444                 1.0870                 1.0871
 Frc consts  --     8.6984                 9.5106                 9.5131
 IR Inten    --     7.6776               231.0406               322.4200

 - Thermochemistry -
 -------------------
 Temperature   298.150 Kelvin.  Pressure   1.00000 Atm.
 Atom     1 has atomic number  8 and mass  15.99491

 Molecular mass:    37.02895 amu.
 Principal axes and moments of inertia in atomic units:
                           1         2         3
     Eigenvalues --    10.11262 208.92236 210.13251
           X            0.99983   0.00000   0.01868
           Y            0.00000   1.00000  -0.00003
           Z           -0.01868   0.00003   0.99983
 This molecule is an asymmetric top.
 Rotational symmetry number  1.
 Rotational temperatures (Kelvin)      8.56492     0.41457     0.41219
 Rotational constants (GHZ):         178.46423     8.63833     8.58859
 Zero-point vibrational energy     151531.7 (Joules/Mol)
                                   36.21696 (Kcal/Mol)
 Warning -- explicit consideration of   6 degrees of freedom as
           vibrations may cause significant error
 Vibrational temperatures:    235.57   546.22   607.38   694.24   736.36
          (Kelvin)            889.61  1562.26  2085.46  2218.39  2433.17
                             2545.80  5396.65  5409.57  5544.44  5545.00

 Zero-point correction=                           0.057715 (Hartree/Particle)
 Thermal correction to Energy=                    0.062429
 Thermal correction to Enthalpy=                  0.063373
 Thermal correction to Gibbs Free Energy=         0.033078
 Sum of electronic and zero-point Energies=           -153.134131
 Sum of electronic and thermal Energies=              -153.129417
 Sum of electronic and thermal Enthalpies=            -153.128473
 Sum of electronic and thermal Free Energies=         -153.158769

                     E (Thermal)             CV                S
                      KCal/Mol        Cal/Mol-Kelvin    Cal/Mol-Kelvin
 Total                   39.175             14.803             63.763
 Electronic               0.000              0.000              0.000
 Translational            0.889              2.981             36.757
 Rotational               0.889              2.981             20.723
 Vibrational             37.397              8.841              6.283
 Vibration     1          0.623              1.887              2.506
 Vibration     2          0.750              1.514              1.041
 Vibration     3          0.784              1.422              0.885
 Vibration     4          0.839              1.289              0.703
 Vibration     5          0.867              1.224              0.629
 Vibration     6          0.978              0.993              0.419

 Normal termination of Gaussian 09 at Mon Mar  1 16:51:24 2021.
