 Gaussian 09, Revision C.01,
 Gaussian 09:  EM64L-G09RevC.01 23-Sep-2011

 ---------------------------------------
 # opt freq hf/6-31g** geom=connectivity
 ---------------------------------------

 99/9=1/99;
 ----
 h30+
 ----
 Charge =  1 Multiplicity = 1

 SCF Done:  E(RHF) =  -151.927508800     A.U. after   17 cycles
 SCF Done:  E(RHF) =  -151.980237276     A.U. after   14 cycles
 SCF Done:  E(RHF) =  -152.075984310     A.U. after   14 cycles
 SCF Done:  E(RHF) =  -152.248990020     A.U. after   13 cycles
 SCF Done:  E(RHF) =  -152.255438473     A.U. after   12 cycles
 SCF Done:  E(RHF) =  -152.359110905     A.U. after   12 cycles
 SCF Done:  E(RHF) =  -152.311827149     A.U. after   12 cycles
 SCF Done:  E(RHF) =  -152.301795378     A.U. after   13 cycles
 SCF Done:  E(RHF) =  -152.279177650     A.U. after   12 cycles
 SCF Done:  E(RHF) =  -152.364666311     A.U. after   11 cycles
 SCF Done:  E(RHF) =  -152.387801633     A.U. after    9 cycles
 SCF Done:  E(RHF) =  -152.387863458     A.U. after   10 cycles
 SCF Done:  E(RHF) =  -152.387890726     A.U. after    9 cycles
 SCF Done:  E(RHF) =  -152.387911307     A.U. after   10 cycles
 SCF Done:  E(RHF) =  -152.387927204     A.U. after    9 cycles
 SCF Done:  E(RHF) =  -152.387940329     A.U. after    9 cycles
 SCF Done:  E(RHF) =  -152.387942970     A.U. after   10 cycles
 SCF Done:  E(RHF) =  -152.387945449     A.U. after   10 cycles
 SCF Done:  E(RHF) =  -152.387946350     A.U. after   11 cycles
 Optimization completed.
    -- Stationary point found.
 Normal termination of Gaussian 09 at Mon Mar  1 15:20:39 2021.

 -------------------------------------------------------------------
 #N Geom=AllCheck Guess=TCheck SCRF=Check GenChk RHF/6-31G(d,p) Freq
 -------------------------------------------------------------------

 Structure from the checkpoint file:  h2h3.chk
 ----
 h30+
 ----
 Charge =  1 Multiplicity = 1

                         Standard orientation:
 ---------------------------------------------------------------------
 Center     Atomic      Atomic             Coordinates (Angstroms)
 Number     Number       Type             X           Y           Z
 ---------------------------------------------------------------------
      1          8           0       -1.198413   -0.056177   -0.004909
      2          1           0       -1.663654    0.124525    0.806445
      3          1           0       -1.665048    0.257948   -0.773631
      4          8           0        1.195174    0.008468    0.001616
      5          1           0        1.722976   -0.776902   -0.065520
      6          1           0        1.751338    0.774223    0.059306
      7          1           0       -0.119700    0.001878   -0.000257
 ---------------------------------------------------------------------

 SCF Done:  E(RHF) =  -152.387946350     A.U. after    1 cycles

 The electronic state is 1-A.
 Alpha  occ. eigenvalues --  -20.89909 -20.82975  -1.70097  -1.61784  -1.06470
 Alpha  occ. eigenvalues --   -1.05273  -0.98744  -0.85909  -0.82959  -0.77257
 Alpha virt. eigenvalues --   -0.03387   0.01898   0.06619   0.10383   0.26082
 Alpha virt. eigenvalues --    0.63741   0.69632   0.71744   0.78235   0.85175
 Alpha virt. eigenvalues --    0.87374   0.89437   0.99679   1.01552   1.04551

 Mulliken atomic charges:
              1
     1  O   -0.585212
     2  H    0.440057
     3  H    0.440046
     4  O   -0.704723
     5  H    0.417417
     6  H    0.415569
     7  H    0.576847
 Sum of Mulliken atomic charges =   1.00000

 Dipole moment (field-independent basis, Debye):
    X=             -0.8688    Y=              1.0190    Z=              0.0702  Tot=              1.3409
 Quadrupole moment (field-independent basis, Debye-Ang):
   XX=              4.6823   YY=             -9.7586   ZZ=             -9.7727
   XY=             -1.8384   XZ=             -0.1846   YZ=             -0.0130

  Exact polarizability:  13.449  -0.400   8.560  -0.041   0.025   8.140
 Approx polarizability:   9.918  -0.292   7.577  -0.030   0.023   7.205

                     1                      2                      3
                     A                      A                      A
 Frequencies --   135.8728               212.9572               362.3350
 Red. masses --     1.1445                 1.0676                 2.1525
 Frc consts  --     0.0124                 0.0285                 0.1665
 IR Inten    --   179.5339               265.8225               282.9936
 Raman Activ --     2.4823                 3.2107                 0.5397

                     4                      5                      6
                     A                      A                      A
 Frequencies --   469.8764               495.0777               508.6102
 Red. masses --     1.2616                 1.0374                 1.2651
 Frc consts  --     0.1641                 0.1498                 0.1928
 IR Inten    --   380.0903                18.9532                64.7181
 Raman Activ --     1.0636                 1.4563                 0.1485

                     7                      8                      9
                     A                      A                      A
 Frequencies --  1410.0163              1436.8551              1749.8046
 Red. masses --     1.0840                 1.0779                 1.0584
 Frc consts  --     1.2698                 1.3112                 1.9093
 IR Inten    --   848.6235               653.2711               137.7133
 Raman Activ --    10.3101                 1.3470                 0.1920

                    10                     11                     12
                     A                      A                      A
 Frequencies --  1793.5707              1980.5480              4025.2225
 Red. masses --     1.0886                 1.1342                 1.0426
 Frc consts  --     2.0633                 2.6212                 9.9527
 IR Inten    --    32.4505              2380.3827               240.2820
 Raman Activ --     3.0243                 8.1417                35.5465

                    13                     14                     15
                     A                      A                      A
 Frequencies --  4088.5922              4130.4499              4194.4485
 Red. masses --     1.0440                 1.0904                 1.0876
 Frc consts  --    10.2823                10.9604                11.2742
 IR Inten    --   107.7303               438.1015               324.8532
 Raman Activ --    56.4032                18.6780                26.1081

 - Thermochemistry -
 -------------------
 Temperature   298.150 Kelvin.  Pressure   1.00000 Atm.
 Atom     1 has atomic number  8 and mass  15.99491

 Molecular mass:    37.02895 amu.
 Principal axes and moments of inertia in atomic units:
                           1         2         3
     Eigenvalues --     9.29543 209.88626 210.13392
           X            0.99994  -0.01095  -0.00089
           Y            0.01093   0.99975  -0.01950
           Z            0.00110   0.01949   0.99981
 This molecule is an asymmetric top.
 Rotational symmetry number  1.
 Rotational temperatures (Kelvin)      9.31789     0.41267     0.41218
 Rotational constants (GHZ):         194.15356     8.59866     8.58853
 Zero-point vibrational energy     161461.4 (Joules/Mol)
                                   38.59020 (Kcal/Mol)
 Warning -- explicit consideration of   6 degrees of freedom as
           vibrations may cause significant error
 Vibrational temperatures:    195.49   306.40   521.32   676.05   712.31
          (Kelvin)            731.78  2028.70  2067.31  2517.58  2580.54
                             2849.56  5791.39  5882.56  5942.79  6034.87

 Zero-point correction=                           0.061497 (Hartree/Particle)
 Thermal correction to Energy=                    0.066597
 Thermal correction to Enthalpy=                  0.067541
 Thermal correction to Gibbs Free Energy=         0.036430
 Sum of electronic and zero-point Energies=           -152.326449
 Sum of electronic and thermal Energies=              -152.321349
 Sum of electronic and thermal Enthalpies=            -152.320405
 Sum of electronic and thermal Free Energies=         -152.351516

                     E (Thermal)             CV                S
                      KCal/Mol        Cal/Mol-Kelvin    Cal/Mol-Kelvin
 Total                   41.790             15.324             65.479
 Electronic               0.000              0.000              0.000
 Translational            0.889              2.981             36.757
 Rotational               0.889              2.981             20.644
 Vibrational             40.013              9.362              8.078
 Vibration     1          0.614              1.918              2.861
 Vibration     2          0.644              1.821              2.018
 Vibration     3          0.736              1.550              1.112
 Vibration     4          0.827              1.317              0.738
 Vibration     5          0.851              1.261              0.671
 Vibration     6          0.864              1.231              0.637

 Normal termination of Gaussian 09 at Mon Mar  1 15:20:42 2021.
