 Gaussian 09, Revision C.01,
 Gaussian 09:  EM64L-G09RevC.01 23-Sep-2011

 -----------------------------------------------
 # opt=(tight) freq hf/6-31g** geom=connectivity
 -----------------------------------------------

 99/9=1/99;
 --
 h3
 --
 Charge =  1 Multiplicity = 1

 SCF Done:  E(RHF) =  -76.1160004270     A.U. after   12 cycles
 SCF Done:  E(RHF) =  -76.1377919169     A.U. after   11 cycles
 SCF Done:  E(RHF) =  -76.1842826167     A.U. after   11 cycles
 SCF Done:  E(RHF) =  -76.2834882198     A.U. after   11 cycles
 SCF Done:  E(RHF) =  -76.0514211287     A.U. after   11 cycles
 SCF Done:  E(RHF) =  -76.3075002136     A.U. after   11 cycles
 SCF Done:  E(RHF) =  -76.3085188405     A.U. after   10 cycles
 SCF Done:  E(RHF) =  -76.3100536946     A.U. after   11 cycles
 SCF Done:  E(RHF) =  -76.3100995474     A.U. after   11 cycles
 SCF Done:  E(RHF) =  -76.3099244776     A.U. after   10 cycles
 SCF Done:  E(RHF) =  -76.3102807439     A.U. after   10 cycles
 SCF Done:  E(RHF) =  -76.3103243352     A.U. after   10 cycles
 SCF Done:  E(RHF) =  -76.3103248098     A.U. after   10 cycles
 SCF Done:  E(RHF) =  -76.3103248130     A.U. after   10 cycles
 Optimization completed.
    -- Stationary point found.
 Normal termination of Gaussian 09 at Mon Mar  1 14:54:33 2021.

 -------------------------------------------------------------------
 #N Geom=AllCheck Guess=TCheck SCRF=Check GenChk RHF/6-31G(d,p) Freq
 -------------------------------------------------------------------

 Structure from the checkpoint file:  h3.chk
 --
 h3
 --
 Charge =  1 Multiplicity = 1

                         Standard orientation:
 ---------------------------------------------------------------------
 Center     Atomic      Atomic             Coordinates (Angstroms)
 Number     Number       Type             X           Y           Z
 ---------------------------------------------------------------------
      1          8           0        0.000000    0.000000   -0.061116
      2          1           0       -0.683591   -0.637590    0.162976
      3          1           0       -0.210379    0.910800    0.162975
      4          1           0        0.893968   -0.273206    0.162976
 ---------------------------------------------------------------------

 SCF Done:  E(RHF) =  -76.3103248130     A.U. after    1 cycles

 The electronic state is 1-A.
 Alpha  occ. eigenvalues --  -21.01189  -1.80917  -1.14905  -1.14905  -0.94999
 Alpha virt. eigenvalues --   -0.10805   0.00409   0.00409   0.64679   0.64679
 Alpha virt. eigenvalues --    0.70555   0.76254   0.89630   0.89630   1.09783
 Alpha virt. eigenvalues --    1.34331   1.34331   1.98642   1.99910   2.21540

 Mulliken atomic charges:
              1
     1  O   -0.438753
     2  H    0.479584
     3  H    0.479584
     4  H    0.479585
 Sum of Mulliken atomic charges =   1.00000

 Dipole moment (field-independent basis, Debye):
    X=              0.0000    Y=              0.0000    Z=              1.3609  Tot=              1.3609
 Quadrupole moment (field-independent basis, Debye-Ang):
   XX=             -2.3379   YY=             -2.3379   ZZ=             -6.2517
   XY=              0.0000   XZ=              0.0000   YZ=              0.0000

  Exact polarizability:   5.126   0.000   5.126   0.000   0.000   2.938
 Approx polarizability:   4.377   0.000   4.377   0.000   0.000   2.624

                     1                      2                      3
                     A                      A                      A
 Frequencies --   781.2563              1788.5462              1788.5514
 Red. masses --     1.1738                 1.0695                 1.0695
 Frc consts  --     0.4221                 2.0158                 2.0158
 IR Inten    --   629.0086               141.1698               141.1683
 Raman Activ --     0.5998                 1.9049                 1.9049

                     4                      5                      6
                     A                      A                      A
 Frequencies --  3857.7233              3993.8320              3993.8448
 Red. masses --     1.0155                 1.0932                 1.0932
 Frc consts  --     8.9041                10.2741                10.2742
 IR Inten    --    45.9642               630.3843               630.3757
 Raman Activ --    38.6190                10.7225                10.7227

 - Thermochemistry -
 -------------------
 Temperature   298.150 Kelvin.  Pressure   1.00000 Atm.
 Atom     1 has atomic number  8 and mass  15.99491

 Molecular mass:    19.01839 amu.
 Principal axes and moments of inertia in atomic units:
                           1         2         3
     Eigenvalues --     5.17329   5.17334   9.43464
           X            1.00000   0.00000   0.00000
           Y            0.00000   1.00000   0.00000
           Z            0.00000   0.00000   1.00000
 This molecule is an asymmetric top.
 Rotational symmetry number  1.
 Rotational temperatures (Kelvin)     16.74249    16.74233     9.18041
 Rotational constants (GHZ):         348.85737   348.85390   191.28891
 Zero-point vibrational energy      96920.0 (Joules/Mol)
                                   23.16443 (Kcal/Mol)
 Vibrational temperatures:   1124.05  2573.32  2573.32  5550.40  5746.23
          (Kelvin)           5746.24

 Zero-point correction=                           0.036915 (Hartree/Particle)
 Thermal correction to Energy=                    0.039834
 Thermal correction to Enthalpy=                  0.040779
 Thermal correction to Gibbs Free Energy=         0.017830
 Sum of electronic and zero-point Energies=            -76.273410
 Sum of electronic and thermal Energies=               -76.270490
 Sum of electronic and thermal Enthalpies=             -76.269546
 Sum of electronic and thermal Free Energies=          -76.292495

                     E (Thermal)             CV                S
                      KCal/Mol        Cal/Mol-Kelvin    Cal/Mol-Kelvin
 Total                   24.996              6.697             48.299
 Electronic               0.000              0.000              0.000
 Translational            0.889              2.981             34.771
 Rotational               0.889              2.981             13.299
 Vibrational             23.219              0.735              0.230

 Optimization completed.
    -- Stationary point found.
 Normal termination of Gaussian 09 at Mon Mar  1 14:54:34 2021.
