 Gaussian 09, Revision C.01,
 Gaussian 09:  EM64L-G09RevC.01 23-Sep-2011

 ------------------------------------------
 # opt freq B3LYP/6-31g** geom=connectivity
 ------------------------------------------

 99/9=1/99;
 -------------------
 Title Card Required
 -------------------
 Charge =  1 Multiplicity = 1

 SCF Done:  E(RB3LYP) =  -76.5192506458     A.U. after   11 cycles
 SCF Done:  E(RB3LYP) =  -76.5615045591     A.U. after   10 cycles
 SCF Done:  E(RB3LYP) =  -76.5707219654     A.U. after   10 cycles
 SCF Done:  E(RB3LYP) =  -76.6485099899     A.U. after   11 cycles
 SCF Done:  E(RB3LYP) =  -76.6807047188     A.U. after   11 cycles
 SCF Done:  E(RB3LYP) =  -76.7015469727     A.U. after   10 cycles
 SCF Done:  E(RB3LYP) =  -76.7040748935     A.U. after   11 cycles
 SCF Done:  E(RB3LYP) =  -76.7055842477     A.U. after   10 cycles
 SCF Done:  E(RB3LYP) =  -76.7056287695     A.U. after    8 cycles
 SCF Done:  E(RB3LYP) =  -76.7056357352     A.U. after    7 cycles
 SCF Done:  E(RB3LYP) =  -76.7056365765     A.U. after    7 cycles
 Optimization completed.
    -- Stationary point found.
 Normal termination of Gaussian 09 at Mon Mar  1 16:28:14 2021.

 ----------------------------------------------------------------------
 #N Geom=AllCheck Guess=TCheck SCRF=Check GenChk RB3LYP/6-31G(d,p) Freq
 ----------------------------------------------------------------------

 Structure from the checkpoint file:  h3_b3l.chk
 -------------------
 Title Card Required
 -------------------
 Charge =  1 Multiplicity = 1

                         Standard orientation:
 ---------------------------------------------------------------------
 Center     Atomic      Atomic             Coordinates (Angstroms)
 Number     Number       Type             X           Y           Z
 ---------------------------------------------------------------------
      1          8           0       -0.000002   -0.000023   -0.070439
      2          1           0       -0.123556    0.939066    0.187804
      3          1           0       -0.751676   -0.576413    0.187860
      4          1           0        0.875247   -0.362467    0.187847
 ---------------------------------------------------------------------

 SCF Done:  E(RB3LYP) =  -76.7056365765     A.U. after    1 cycles

 The electronic state is 1-A.
 Alpha  occ. eigenvalues --  -19.59086  -1.45031  -0.93884  -0.93879  -0.73825
 Alpha virt. eigenvalues --   -0.26457  -0.16216  -0.16213   0.40703   0.40714
 Alpha virt. eigenvalues --    0.44745   0.50516   0.62852   0.62853   0.87459
 Alpha virt. eigenvalues --    1.06767   1.06778   1.64278   1.70115   1.89637

 Mulliken atomic charges:
              1
     1  O   -0.381635
     2  H    0.460496
     3  H    0.460548
     4  H    0.460591
 Sum of Mulliken atomic charges =   1.00000

 Dipole moment (field-independent basis, Debye):
    X=              0.0001    Y=              0.0003    Z=              1.4976  Tot=              1.4976
 Quadrupole moment (field-independent basis, Debye-Ang):
   XX=             -2.3973   YY=             -2.4000   ZZ=             -6.1797
   XY=              0.0000   XZ=              0.0000   YZ=              0.0000

  Exact polarizability:   5.610   0.000   5.608   0.000   0.000   3.116
 Approx polarizability:   6.803   0.000   6.800   0.000   0.000   3.620

                     1                      2                      3
                     A                      A                      A
 Frequencies --   784.6589              1668.5932              1668.9295
 Red. masses --     1.1722                 1.0682                 1.0682
 Frc consts  --     0.4252                 1.7522                 1.7529
 IR Inten    --   548.7075               121.8613               121.8181

                     4                      5                      6
                     A                      A                      A
 Frequencies --  3585.3596              3703.7336              3704.7891
 Red. masses --     1.0167                 1.0906                 1.0906
 Frc consts  --     7.7004                 8.8145                 8.8195
 IR Inten    --    40.3428               503.9385               503.5983

 - Thermochemistry -
 -------------------
 Temperature   298.150 Kelvin.  Pressure   1.00000 Atm.
 Atom     1 has atomic number  8 and mass  15.99491

 Molecular mass:    19.01839 amu.
 Principal axes and moments of inertia in atomic units:
                           1         2         3
     Eigenvalues --     5.44812   5.45122   9.68788
           X            1.00000   0.00000   0.00000
           Y            0.00000   1.00000  -0.00001
           Z            0.00000   0.00001   1.00000
 This molecule is an asymmetric top.
 Rotational symmetry number  1.
 Rotational temperatures (Kelvin)     15.89793    15.88888     8.94043
 Rotational constants (GHZ):         331.25952   331.07092   186.28859
 Zero-point vibrational energy      90414.1 (Joules/Mol)
                                   21.60950 (Kcal/Mol)
 Vibrational temperatures:   1128.95  2400.73  2401.21  5158.53  5328.84
          (Kelvin)           5330.36

 Zero-point correction=                           0.034437 (Hartree/Particle)
 Thermal correction to Energy=                    0.037357
 Thermal correction to Enthalpy=                  0.038301
 Thermal correction to Gibbs Free Energy=         0.015290
 Sum of electronic and zero-point Energies=            -76.671200
 Sum of electronic and thermal Energies=               -76.668279
 Sum of electronic and thermal Enthalpies=             -76.667335
 Sum of electronic and thermal Free Energies=          -76.690346

                     E (Thermal)             CV                S
                      KCal/Mol        Cal/Mol-Kelvin    Cal/Mol-Kelvin
 Total                   23.442              6.720             48.431
 Electronic               0.000              0.000              0.000
 Translational            0.889              2.981             34.771
 Rotational               0.889              2.981             13.429
 Vibrational             21.665              0.758              0.232

 Optimization completed.
    -- Stationary point found.
 Normal termination of Gaussian 09 at Mon Mar  1 16:28:17 2021.
