 Gaussian 09, Revision C.01,
 Gaussian 09:  EM64L-G09RevC.01 23-Sep-2011

 ------------------------
 # freq opt b3lyp/6-31g**
 ------------------------

 99/9=1/99;
 -------------------
 Title Card Required
 -------------------
 Charge =  1 Multiplicity = 1

 SCF Done:  E(RB3LYP) =  -76.7056362547     A.U. after    9 cycles
 Optimization completed.
    -- Stationary point found.
 Normal termination of Gaussian 09 at Mon Mar  1 16:34:32 2021.

 ----------------------------------------------------------------------
 #N Geom=AllCheck Guess=TCheck SCRF=Check GenChk RB3LYP/6-31G(d,p) Freq
 ----------------------------------------------------------------------

 Structure from the checkpoint file:  h3_b3l2.chk
 -------------------
 Title Card Required
 -------------------
 Charge =  1 Multiplicity = 1

                         Standard orientation:
 ---------------------------------------------------------------------
 Center     Atomic      Atomic             Coordinates (Angstroms)
 Number     Number       Type             X           Y           Z
 ---------------------------------------------------------------------
      1          8           0        0.000000    0.000000    0.070430
      2          1           0        0.000000    0.947159   -0.187813
      3          1           0        0.820264   -0.473580   -0.187813
      4          1           0       -0.820264   -0.473580   -0.187813
 ---------------------------------------------------------------------

 SCF Done:  E(RB3LYP) =  -76.7056362547     A.U. after    1 cycles

 The electronic state is 1-A1.
 Alpha  occ. eigenvalues --  -19.59087  -1.45037  -0.93887  -0.93887  -0.73828
 Alpha virt. eigenvalues --   -0.26454  -0.16211  -0.16211   0.40709   0.40709
 Alpha virt. eigenvalues --    0.44750   0.50515   0.62853   0.62853   0.87461
 Alpha virt. eigenvalues --    1.06771   1.06771   1.64287   1.70119   1.89664

 Mulliken atomic charges:
              1
     1  O   -0.381529
     2  H    0.460510
     3  H    0.460510
     4  H    0.460510
 Sum of Mulliken atomic charges =   1.00000

 Dipole moment (field-independent basis, Debye):
    X=              0.0000    Y=              0.0000    Z=             -1.4974  Tot=              1.4974
 Quadrupole moment (field-independent basis, Debye-Ang):
   XX=             -2.3991   YY=             -2.3991   ZZ=             -6.1795
   XY=              0.0000   XZ=              0.0000   YZ=              0.0000

  Exact polarizability:   5.608   0.000   5.608   0.000   0.000   3.116
 Approx polarizability:   6.800   0.000   6.800   0.000   0.000   3.619

                     1                      2                      3
                    A1                      E                      E
 Frequencies --   783.5373              1668.5258              1668.5259
 Red. masses --     1.1722                 1.0682                 1.0682
 Frc consts  --     0.4240                 1.7521                 1.7521
 IR Inten    --   548.7058               121.8437               121.8424

                     4                      5                      6
                    A1                      E                      E
 Frequencies --  3586.4210              3705.3930              3705.3932
 Red. masses --     1.0167                 1.0906                 1.0906
 Frc consts  --     7.7050                 8.8224                 8.8224
 IR Inten    --    40.3411               503.7491               503.7454

 - Thermochemistry -
 -------------------
 Temperature   298.150 Kelvin.  Pressure   1.00000 Atm.
 Atom     1 has atomic number  8 and mass  15.99491

 Molecular mass:    19.01839 amu.
 Principal axes and moments of inertia in atomic units:
                           1         2         3
     Eigenvalues --     5.44864   5.44864   9.68613
           X           -0.66734   0.74476   0.00000
           Y            0.74476   0.66734   0.00000
           Z            0.00000   0.00000   1.00000
 This molecule is an oblate symmetric top.
 Rotational symmetry number  3.
 Rotational temperatures (Kelvin)     15.89641    15.89641     8.94205
 Rotational constants (GHZ):         331.22781   331.22781   186.32227
 Zero-point vibrational energy      90424.5 (Joules/Mol)
                                   21.61197 (Kcal/Mol)
 Vibrational temperatures:   1127.33  2400.63  2400.63  5160.05  5331.23
          (Kelvin)           5331.23

 Zero-point correction=                           0.034441 (Hartree/Particle)
 Thermal correction to Energy=                    0.037362
 Thermal correction to Enthalpy=                  0.038306
 Thermal correction to Gibbs Free Energy=         0.016332
 Sum of electronic and zero-point Energies=            -76.671195
 Sum of electronic and thermal Energies=               -76.668275
 Sum of electronic and thermal Enthalpies=             -76.667331
 Sum of electronic and thermal Free Energies=          -76.689304

                     E (Thermal)             CV                S
                      KCal/Mol        Cal/Mol-Kelvin    Cal/Mol-Kelvin
 Total                   23.445              6.722             46.248
 Electronic               0.000              0.000              0.000
 Translational            0.889              2.981             34.771
 Rotational               0.889              2.981             11.245
 Vibrational             21.667              0.760              0.233

 Optimization completed.
    -- Stationary point found.
 Normal termination of Gaussian 09 at Mon Mar  1 16:34:34 2021.
