 Gaussian 09, Revision C.01,
 Gaussian 09:  EM64L-G09RevC.01 23-Sep-2011

 --------------------
 #hf/6-31g** opt freq
 --------------------

 99/9=1/99;
 --
 xx
 --
 Charge =  1 Multiplicity = 1

 SCF Done:  E(RHF) =  -76.3103248092     A.U. after    9 cycles
 Optimization completed.
    -- Stationary point found.
 Normal termination of Gaussian 09 at Mon Mar  1 14:57:04 2021.

 -------------------------------------------------------------------
 #N Geom=AllCheck Guess=TCheck SCRF=Check GenChk RHF/6-31G(d,p) Freq
 -------------------------------------------------------------------

 Structure from the checkpoint file:  /home/student/singh/Gau-14851.chk
 --
 xx
 --
 Charge =  1 Multiplicity = 1

                         Standard orientation:
 ---------------------------------------------------------------------
 Center     Atomic      Atomic             Coordinates (Angstroms)
 Number     Number       Type             X           Y           Z
 ---------------------------------------------------------------------
      1          8           0       -0.000014    0.000000   -0.061147
      2          1           0        0.467706   -0.809326    0.163051
      3          1           0       -0.934765   -0.000309    0.163078
      4          1           0        0.467171    0.809635    0.163051
 ---------------------------------------------------------------------

 SCF Done:  E(RHF) =  -76.3103248092     A.U. after    1 cycles

 The electronic state is 1-A.
 Alpha  occ. eigenvalues --  -21.01190  -1.80918  -1.14907  -1.14903  -0.95001
 Alpha virt. eigenvalues --   -0.10805   0.00409   0.00409   0.64673   0.64681
 Alpha virt. eigenvalues --    0.70559   0.76254   0.89630   0.89630   1.09784
 Alpha virt. eigenvalues --    1.34326   1.34330   1.98632   1.99913   2.21541

 Mulliken atomic charges:
              1
     1  O   -0.438734
     2  H    0.479574
     3  H    0.479587
     4  H    0.479574
 Sum of Mulliken atomic charges =   1.00000

 Dipole moment (field-independent basis, Debye):
    X=              0.0002    Y=              0.0000    Z=              1.3616  Tot=              1.3616
 Quadrupole moment (field-independent basis, Debye-Ang):
   XX=             -2.3378   YY=             -2.3386   ZZ=             -6.2515
   XY=              0.0000   XZ=              0.0000   YZ=              0.0000

  Exact polarizability:   5.126   0.000   5.126   0.000   0.000   2.938
 Approx polarizability:   4.377   0.000   4.377   0.000   0.000   2.624

                     1                      2                      3
                     A                      A                      A
 Frequencies --   781.7737              1788.4996              1788.6567
 Red. masses --     1.1738                 1.0695                 1.0695
 Frc consts  --     0.4227                 2.0157                 2.0160
 IR Inten    --   628.8898               141.1607               141.1359
 Raman Activ --     0.6004                 1.9052                 1.9058

                     4                      5                      6
                     A                      A                      A
 Frequencies --  3857.7462              3993.8019              3993.8459
 Red. masses --     1.0155                 1.0932                 1.0932
 Frc consts  --     8.9043                10.2738                10.2742
 IR Inten    --    46.0059               630.1793               630.3793
 Raman Activ --    38.6201                10.7269                10.7226

 - Thermochemistry -
 -------------------
 Temperature   298.150 Kelvin.  Pressure   1.00000 Atm.
 Atom     1 has atomic number  8 and mass  15.99491

 Molecular mass:    19.01839 amu.
 Principal axes and moments of inertia in atomic units:
                           1         2         3
     Eigenvalues --     5.17303   5.17399   9.43408
           X            1.00000   0.00000   0.00000
           Y            0.00000   1.00000   0.00000
           Z            0.00000   0.00000   1.00000
 This molecule is an asymmetric top.
 Rotational symmetry number  1.
 Rotational temperatures (Kelvin)     16.74333    16.74024     9.18095
 Rotational constants (GHZ):         348.87474   348.81042   191.30009
 Zero-point vibrational energy      96923.4 (Joules/Mol)
                                   23.16524 (Kcal/Mol)
 Vibrational temperatures:   1124.80  2573.25  2573.47  5550.43  5746.18
          (Kelvin)           5746.25

 Zero-point correction=                           0.036916 (Hartree/Particle)
 Thermal correction to Energy=                    0.039835
 Thermal correction to Enthalpy=                  0.040780
 Thermal correction to Gibbs Free Energy=         0.017831
 Sum of electronic and zero-point Energies=            -76.273409
 Sum of electronic and thermal Energies=               -76.270489
 Sum of electronic and thermal Enthalpies=             -76.269545
 Sum of electronic and thermal Free Energies=          -76.292494

                     E (Thermal)             CV                S
                      KCal/Mol        Cal/Mol-Kelvin    Cal/Mol-Kelvin
 Total                   24.997              6.696             48.299
 Electronic               0.000              0.000              0.000
 Translational            0.889              2.981             34.771
 Rotational               0.889              2.981             13.299
 Vibrational             23.220              0.734              0.229

 Optimization completed.
    -- Stationary point found.
 Normal termination of Gaussian 09 at Mon Mar  1 14:57:05 2021.
