 Gaussian 09, Revision C.01,
 Gaussian 09:  EM64L-G09RevC.01 23-Sep-2011

 ---------------
 #hf/6-31g** opt
 ---------------

 99/9=1/99;
 --
 xx
 --
 Charge =  1 Multiplicity = 1

 SCF Done:  E(RHF) =  -76.3103248092     A.U. after    9 cycles

 The electronic state is 1-A'.
 Alpha  occ. eigenvalues --  -21.01190  -1.80918  -1.14907  -1.14903  -0.95001
 Alpha virt. eigenvalues --   -0.10805   0.00409   0.00409   0.64673   0.64681
 Alpha virt. eigenvalues --    0.70559   0.76254   0.89630   0.89630   1.09784
 Alpha virt. eigenvalues --    1.34326   1.34330   1.98632   1.99913   2.21541

 Mulliken atomic charges:
              1
     1  O   -0.438734
     2  H    0.479574
     3  H    0.479587
     4  H    0.479574
 Sum of Mulliken atomic charges =   1.00000

 Dipole moment (field-independent basis, Debye):
    X=              0.0001    Y=             -1.3616    Z=              0.0000  Tot=              1.3616
 Quadrupole moment (field-independent basis, Debye-Ang):
   XX=             -2.3378   YY=             -6.2515   ZZ=             -2.3386
   XY=              0.0009   XZ=              0.0000   YZ=              0.0000

 Optimization completed.
    -- Stationary point found.

                         Standard orientation:
 ---------------------------------------------------------------------
 Center     Atomic      Atomic             Coordinates (Angstroms)
 Number     Number       Type             X           Y           Z
 ---------------------------------------------------------------------
      1          8           0        0.000000    0.061147    0.000000
      2          1           0       -0.467401   -0.163158    0.809481
      3          1           0        0.934802   -0.162863    0.000000
      4          1           0       -0.467401   -0.163158   -0.809481
 ---------------------------------------------------------------------

 Normal termination of Gaussian 09 at Mon Mar  1 14:59:15 2021.
