 Gaussian 09, Revision C.01,
 Gaussian 09:  EM64L-G09RevC.01 23-Sep-2011

 --------------------------------
 #hf/6-31g** opt=(verytight) freq
 --------------------------------

 99/9=1/99;
 --
 xx
 --
 Charge =  1 Multiplicity = 1

 SCF Done:  E(RHF) =  -76.2737394019     A.U. after    9 cycles
 SCF Done:  E(RHF) =  -76.3060536934     A.U. after   10 cycles
 SCF Done:  E(RHF) =  -76.3100744993     A.U. after    9 cycles
 SCF Done:  E(RHF) =  -76.3103001381     A.U. after    8 cycles
 SCF Done:  E(RHF) =  -76.3103247958     A.U. after    8 cycles
 SCF Done:  E(RHF) =  -76.3103248128     A.U. after    6 cycles
 SCF Done:  E(RHF) =  -76.3103248130     A.U. after    5 cycles
 SCF Done:  E(RHF) =  -76.3103248131     A.U. after    3 cycles
 Optimization completed.
    -- Stationary point found.
 Normal termination of Gaussian 09 at Mon Mar  1 15:13:59 2021.

 -------------------------------------------------------------------
 #N Geom=AllCheck Guess=TCheck SCRF=Check GenChk RHF/6-31G(d,p) Freq
 -------------------------------------------------------------------

 Structure from the checkpoint file:  /home/student/singh/Gau-15201.chk
 --
 xx
 --
 Charge =  1 Multiplicity = 1

                         Standard orientation:
 ---------------------------------------------------------------------
 Center     Atomic      Atomic             Coordinates (Angstroms)
 Number     Number       Type             X           Y           Z
 ---------------------------------------------------------------------
      1          8           0        0.000000    0.000000    0.061119
      2          1           0        0.000000    0.934779   -0.162983
      3          1           0       -0.809542   -0.467390   -0.162983
      4          1           0        0.809542   -0.467390   -0.162983
 ---------------------------------------------------------------------

 SCF Done:  E(RHF) =  -76.3103248131     A.U. after    1 cycles

 The electronic state is 1-A1.
 Alpha  occ. eigenvalues --  -21.01189  -1.80917  -1.14905  -1.14905  -0.94999
 Alpha virt. eigenvalues --   -0.10805   0.00409   0.00409   0.64679   0.64679
 Alpha virt. eigenvalues --    0.70556   0.76254   0.89630   0.89630   1.09783
 Alpha virt. eigenvalues --    1.34330   1.34330   1.98641   1.99910   2.21540

 Mulliken atomic charges:
              1
     1  O   -0.438750
     2  H    0.479583
     3  H    0.479583
     4  H    0.479583
 Sum of Mulliken atomic charges =   1.00000

 Dipole moment (field-independent basis, Debye):
    X=              0.0000    Y=              0.0000    Z=             -1.3609  Tot=              1.3609
 Quadrupole moment (field-independent basis, Debye-Ang):
   XX=             -2.3380   YY=             -2.3380   ZZ=             -6.2517
   XY=              0.0000   XZ=              0.0000   YZ=              0.0000

  Exact polarizability:   5.126   0.000   5.126   0.000   0.000   2.938
 Approx polarizability:   4.377   0.000   4.377   0.000   0.000   2.624

                     1                      2                      3
                    A1                      E                      E
 Frequencies --   781.2951              1788.5501              1788.5501
 Red. masses --     1.1738                 1.0695                 1.0695
 Frc consts  --     0.4222                 2.0158                 2.0158
 IR Inten    --   628.9979               141.1673               141.1673
 Raman Activ --     0.5999                 1.9049                 1.9049

                     4                      5                      6
                    A1                      E                      E
 Frequencies --  3857.7356              3993.8479              3993.8479
 Red. masses --     1.0155                 1.0932                 1.0932
 Frc consts  --     8.9042                10.2742                10.2742
 IR Inten    --    45.9679               630.3701               630.3701
 Raman Activ --    38.6190                10.7228                10.7228

 - Thermochemistry -
 -------------------
 Temperature   298.150 Kelvin.  Pressure   1.00000 Atm.
 Atom     1 has atomic number  8 and mass  15.99491

 Molecular mass:    19.01839 amu.
 Principal axes and moments of inertia in atomic units:
                           1         2         3
     Eigenvalues --     5.17333   5.17333   9.43457
           X           -0.65520   0.75545   0.00000
           Y            0.75545   0.65520   0.00000
           Z            0.00000   0.00000   1.00000
 This molecule is an oblate symmetric top.
 Rotational symmetry number  3.
 Rotational temperatures (Kelvin)     16.74238    16.74238     9.18047
 Rotational constants (GHZ):         348.85504   348.85504   191.29022
 Zero-point vibrational energy      96920.4 (Joules/Mol)
                                   23.16453 (Kcal/Mol)
 Vibrational temperatures:   1124.11  2573.32  2573.32  5550.41  5746.25
          (Kelvin)           5746.25

 Zero-point correction=                           0.036915 (Hartree/Particle)
 Thermal correction to Energy=                    0.039834
 Thermal correction to Enthalpy=                  0.040779
 Thermal correction to Gibbs Free Energy=         0.018867
 Sum of electronic and zero-point Energies=            -76.273410
 Sum of electronic and thermal Energies=               -76.270490
 Sum of electronic and thermal Enthalpies=             -76.269546
 Sum of electronic and thermal Free Energies=          -76.291457

                     E (Thermal)             CV                S
                      KCal/Mol        Cal/Mol-Kelvin    Cal/Mol-Kelvin
 Total                   24.997              6.697             46.116
 Electronic               0.000              0.000              0.000
 Translational            0.889              2.981             34.771
 Rotational               0.889              2.981             11.116
 Vibrational             23.219              0.735              0.230

 Optimization completed.
    -- Stationary point found.
 Normal termination of Gaussian 09 at Mon Mar  1 15:14:00 2021.
